20286
Step=0; Time=0; Box=[0, 53.116896629333496], [0, 52.572092056274414], [0.43933719493705575, 96.33734401328508]; temp_up=300.01337588855796; temp_down=301.4826602779623; temp_glicerol=300.1499508622255; vcmy_glicerol=-2.8275435877824317e-06; fcmx_diamup=-464.33419637917154; fcmy_diamup=-263.0585406099187; fcmz_diamup=-185.57297268783822; fcmx_diamdown=-77.10842905082524; fcmy_diamdown=110.31226354857071; fcmz_diamdown=-140.2899523838907; fcmx_glicerol=3.039668789182617; fcmy_glicerol=-5.06330135256117; fcmz_glicerol=9.727313720915875; vcmy_diamup=-3.1389946536884497e-05; vcmy_diamdown=-2.6631405961489187e-05
H2 0.316172 0.316187 0.448927 0.0017823 0.00681684 7.82957e-05 -3.07937 -1.21535 -50.093 2
H2 0.316172 4.69719 0.448927 0.000622342 -0.00115364 0.00375054 4.87135 3.41856 18.5223 2
H2 1.58086 2.50669 0.448927 0.000212226 -0.00116769 -0.00590716 12.976 -0.441174 0.822652 2
20286
Step=20; Time=1; Box=[0, 53.116896629333496], [0, 52.572092056274414], [0.43933719493705575, 96.33661816890172]; temp_up=302.9835046598682; temp_down=301.87444362488395; temp_glicerol=302.26813661366367; vcmy_glicerol=-2.8724272136338264e-06; fcmx_diamup=-453.99482598635586; fcmy_diamup=-326.24381431508033; fcmz_diamup=-233.9726040510098; fcmx_diamdown=-42.210472839826075; fcmy_diamdown=124.79690543736122; fcmz_diamdown=-122.74328293645766; fcmx_glicerol=3.1868325247141094; fcmy_glicerol=-4.298221898942454; fcmz_glicerol=9.276458616821385; vcmy_diamup=-3.0941717500759274e-05; vcmy_diamdown=-2.9443466037842702e-05
H2 0.316172 0.316187 0.448927 0 0 0 -3.26547 -0.934803 -55.5867 2
H2 0.316172 4.69719 0.448927 0 0 0 4.38025 2.5146 15.9241 2
H2 1.58086 2.50669 0.448927 0 0 0 12.2067 -0.70492 2.57488 2
20286
Step=40; Time=2; Box=[0, 53.116896629333496], [0, 52.572092056274414], [0.43933719493705575, 96.3346630694646]; temp_up=302.8243689252428; temp_down=301.38668254523503; temp_glicerol=304.22376702756196; vcmy_glicerol=-2.909264466469331e-06; fcmx_diamup=-448.1659845051213; fcmy_diamup=-386.817432548582; fcmz_diamup=-269.80336944302906; fcmx_diamdown=-13.071858320137883; fcmy_diamdown=128.84158150708203; fcmz_diamdown=-146.7292159255793; fcmx_glicerol=3.121817604281661; fcmy_glicerol=-3.4342165171789922; fcmz_glicerol=7.389085572389913; vcmy_diamup=-2.97666226668858e-05; vcmy_diamdown=-3.2073229796614527e-05
H2 0.316172 0.316187 0.448927 0 0 0 -3.09033 -0.626442 -56.3632 2
H2 0.316172 4.69719 0.448927 0 0 0 3.79529 1.47219 11.367 2
H2 1.58086 2.50669 0.448927 0 0 0 10.5978 -1.60979 4.65806 2
